3
Final equilibrium conformation guess (Step 3)
O       0.000000000000000      0.000000000000000     -0.048152292378055
N       0.000000000000000      0.000000000000000      1.150000000000000
O       0.862169169894527      0.000000000000000      1.982005458740805
